 argument  1 = nmr_s.inp
                                         
                                         


             Northwest Computational Chemistry Package (NWChem) 7.2.3
             --------------------------------------------------------


                    Environmental Molecular Sciences Laboratory
                       Pacific Northwest National Laboratory
                                Richland, WA 99352

                              Copyright (c) 1994-2022
                       Pacific Northwest National Laboratory
                            Battelle Memorial Institute

             NWChem is an open-source computational chemistry package
                        distributed under the terms of the
                      Educational Community License (ECL) 2.0
             A copy of the license is included with this distribution
                              in the LICENSE.TXT file

                                  ACKNOWLEDGMENT
                                  --------------

            This software and its documentation were developed at the
            EMSL at Pacific Northwest National Laboratory, a multiprogram
            national laboratory, operated for the U.S. Department of Energy
            by Battelle under Contract Number DE-AC05-76RL01830. Support
            for this work was provided by the Department of Energy Office
            of Biological and Environmental Research, Office of Basic
            Energy Sciences, and the Office of Advanced Scientific Computing.


           Job information
           ---------------

    hostname        = WE49266
    program         = nwchem
    date            = Wed Nov 13 12:02:45 2024

    compiled        = Fri_Oct_11_03:05:56_2024
    source          = /private/tmp/nwchem-20241010-8896-5e71t3/nwchem-7.2.3
    nwchem branch   = 7.2.3
    nwchem revision = d690e065
    ga revision     = 5.8.0
    use scalapack   = T
    input           = nmr_s.inp
    prefix          = CONF1.
    data base       = ./CONF1.db
    status          = startup
    nproc           =        8
    time left       =     -1s



           Memory information
           ------------------

    heap     =   26214396 doubles =    200.0 Mbytes
    stack    =   26214401 doubles =    200.0 Mbytes
    global   =   52428800 doubles =    400.0 Mbytes (distinct from heap & stack)
    total    =  104857597 doubles =    800.0 Mbytes
    verify   = yes
    hardfail = no 


           Directory information
           ---------------------

  0 permanent = .
  0 scratch   = .




                                NWChem Input Module
                                -------------------



 Scaling coordinates for geometry "geometry" by  1.889725989
 (inverse scale =  0.529177249)

  zeroes
  zeroes
  zeroes
  zeroes
  zeroes
  zeroes
  zeroes
  zeroes
  zeroes
  zeroes
  zeroes
  zeroes
  zeroes
  zeroes
  zeroes
  zeroes
  zeroes
  zeroes
  zeroes
  zeroes
  zeroes
  zeroes
  zeroes
  zeroes
  zeroes
  zeroes
  zeroes
  zeroes
  zeroes
  zeroes
  zeroes
  zeroes
  zeroes
  zeroes
  zeroes
  zeroes
  zeroes
  zeroes
  zeroes
  zeroes
  zeroes
  zeroes
  zeroes
  zeroes
  zeroes
  zeroes
  zeroes
  zeroes
  zeroes
  zeroes
  zeroes
  zeroes
  zeroes
  zeroes
  zeroes
  zeroes
  zeroes
  zeroes
  zeroes
  zeroes
  zeroes
  zeroes
  zeroes
  zeroes
  zeroes
  zeroes
  zeroes
  zeroes
  zeroes
  zeroes
  zeroes
  zeroes
 C1  symmetry detected

          ------
          auto-z
          ------
  no constraints, skipping    0.0000000000000000     
  no constraints, skipping    0.0000000000000000     


                             Geometry "geometry" -> ""
                             -------------------------

 Output coordinates in angstroms (scale by  1.889725989 to convert to a.u.)

  No.       Tag          Charge          X              Y              Z
 ---- ---------------- ---------- -------------- -------------- --------------
    1 C                    6.0000     0.38492689     1.35641206    -1.23544274
    2 Si                  14.0000    -0.00000450    -0.00001525    -0.00001450
    3 C                    6.0000     1.37984883    -0.10311531     1.26474489
    4 C                    6.0000    -1.61601545     0.38592259     0.86825726
    5 C                    6.0000    -0.14875358    -1.63914848    -0.89749533
    6 H                    1.0000     0.47608464     2.32303734    -0.73195518
    7 H                    1.0000    -0.40918397     1.43370245    -1.98417189
    8 H                    1.0000     1.32585259     1.15047780    -1.75454995
    9 H                    1.0000     1.48398168     0.84475704     1.80104540
   10 H                    1.0000     2.33360030    -0.32793306     0.77845803
   11 H                    1.0000     1.17494629    -0.89001158     1.99689783
   12 H                    1.0000    -1.55089223     1.34013440     1.39936388
   13 H                    1.0000    -1.85997136    -0.39453391     1.59513073
   14 H                    1.0000    -2.43611986     0.45065339     0.14716644
   15 H                    1.0000     0.78513901    -1.88391810    -1.41206812
   16 H                    1.0000    -0.94982095    -1.60074142    -1.64173402
   17 H                    1.0000    -0.37359321    -2.44583602    -0.19376465

      Atomic Mass 
      ----------- 

      C                 12.000000
      Si                27.976930
      H                  1.007825


 Effective nuclear repulsion energy (a.u.)     246.6585356369

            Nuclear Dipole moment (a.u.) 
            ----------------------------
        X                 Y               Z
 ---------------- ---------------- ----------------
    -0.0000000000    -0.0000000000     0.0000000000



                                Z-matrix (autoz)
                                -------- 

 Units are Angstrom for bonds and degrees for angles

      Type          Name      I     J     K     L     M      Value
      ----------- --------  ----- ----- ----- ----- ----- ----------
    1 Stretch                  1     2                       1.87466
    2 Stretch                  1     6                       1.09370
    3 Stretch                  1     7                       1.09416
    4 Stretch                  1     8                       1.09418
    5 Stretch                  2     3                       1.87463
    6 Stretch                  2     4                       1.87466
    7 Stretch                  2     5                       1.87466
    8 Stretch                  3     9                       1.09404
    9 Stretch                  3    10                       1.09392
   10 Stretch                  3    11                       1.09418
   11 Stretch                  4    12                       1.09400
   12 Stretch                  4    13                       1.09406
   13 Stretch                  4    14                       1.09395
   14 Stretch                  5    15                       1.09401
   15 Stretch                  5    16                       1.09411
   16 Stretch                  5    17                       1.09386
   17 Bend                     1     2     3               109.46753
   18 Bend                     1     2     4               109.46770
   19 Bend                     1     2     5               109.47812
   20 Bend                     2     1     6               110.68478
   21 Bend                     2     1     7               110.67383
   22 Bend                     2     1     8               110.67390
   23 Bend                     2     3     9               110.67922
   24 Bend                     2     3    10               110.67942
   25 Bend                     2     3    11               110.68048
   26 Bend                     2     4    12               110.67729
   27 Bend                     2     4    13               110.67545
   28 Bend                     2     4    14               110.67837
   29 Bend                     2     5    15               110.67534
   30 Bend                     2     5    16               110.67423
   31 Bend                     2     5    17               110.67865
   32 Bend                     3     2     4               109.47233
   33 Bend                     3     2     5               109.46987
   34 Bend                     4     2     5               109.47178
   35 Bend                     6     1     7               108.24487
   36 Bend                     6     1     8               108.24446
   37 Bend                     7     1     8               108.22607
   38 Bend                     9     3    10               108.23920
   39 Bend                     9     3    11               108.23376
   40 Bend                    10     3    11               108.23554
   41 Bend                    12     4    13               108.23658
   42 Bend                    12     4    14               108.24130
   43 Bend                    13     4    14               108.23897
   44 Bend                    15     5    16               108.23493
   45 Bend                    15     5    17               108.24410
   46 Bend                    16     5    17               108.24085
   47 Torsion                  1     2     3     9          59.99773
   48 Torsion                  1     2     3    10         -60.00556
   49 Torsion                  1     2     3    11         179.99491
   50 Torsion                  1     2     4    12         -59.99795
   51 Torsion                  1     2     4    13        -179.99410
   52 Torsion                  1     2     4    14          60.00604
   53 Torsion                  1     2     5    15          59.99460
   54 Torsion                  1     2     5    16         -59.99741
   55 Torsion                  1     2     5    17        -179.99900
   56 Torsion                  3     2     1     6         -59.99825
   57 Torsion                  3     2     1     7         179.99138
   58 Torsion                  3     2     1     8          60.01166
   59 Torsion                  3     2     4    12          59.99606
   60 Torsion                  3     2     4    13         -60.00010
   61 Torsion                  3     2     4    14        -180.00000
   62 Torsion                  3     2     5    15         -60.00427
   63 Torsion                  3     2     5    16        -179.99629
   64 Torsion                  3     2     5    17          60.00212
   65 Torsion                  4     2     1     6          59.99870
   66 Torsion                  4     2     1     7         -60.01168
   67 Torsion                  4     2     1     8        -179.99139
   68 Torsion                  4     2     3     9         -59.99638
   69 Torsion                  4     2     3    10        -179.99967
   70 Torsion                  4     2     3    11          60.00080
   71 Torsion                  4     2     5    15         179.99486
   72 Torsion                  4     2     5    16          60.00285
   73 Torsion                  4     2     5    17         -59.99875
   74 Torsion                  5     2     1     6        -179.99855
   75 Torsion                  5     2     1     7          59.99107
   76 Torsion                  5     2     1     8         -59.98864
   77 Torsion                  5     2     3     9        -179.99691
   78 Torsion                  5     2     3    10          59.99980
   79 Torsion                  5     2     3    11         -59.99973
   80 Torsion                  5     2     4    12         179.99542
   81 Torsion                  5     2     4    13          59.99926
   82 Torsion                  5     2     4    14         -60.00060


            XYZ format geometry
            -------------------
    17
 geometry
 C                     0.38492689     1.35641206    -1.23544274
 Si                   -0.00000450    -0.00001525    -0.00001450
 C                     1.37984883    -0.10311531     1.26474489
 C                    -1.61601545     0.38592259     0.86825726
 C                    -0.14875358    -1.63914848    -0.89749533
 H                     0.47608464     2.32303734    -0.73195518
 H                    -0.40918397     1.43370245    -1.98417189
 H                     1.32585259     1.15047780    -1.75454995
 H                     1.48398168     0.84475704     1.80104540
 H                     2.33360030    -0.32793306     0.77845803
 H                     1.17494629    -0.89001158     1.99689783
 H                    -1.55089223     1.34013440     1.39936388
 H                    -1.85997136    -0.39453391     1.59513073
 H                    -2.43611986     0.45065339     0.14716644
 H                     0.78513901    -1.88391810    -1.41206812
 H                    -0.94982095    -1.60074142    -1.64173402
 H                    -0.37359321    -2.44583602    -0.19376465

 ==============================================================================
                                internuclear distances
 ------------------------------------------------------------------------------
       center one      |      center two      | atomic units |  angstroms
 ------------------------------------------------------------------------------
    2 Si               |   1 C                |     3.54259  |     1.87466
    3 C                |   2 Si               |     3.54254  |     1.87463
    4 C                |   2 Si               |     3.54259  |     1.87466
    5 C                |   2 Si               |     3.54260  |     1.87466
    6 H                |   1 C                |     2.06679  |     1.09370
    7 H                |   1 C                |     2.06766  |     1.09416
    8 H                |   1 C                |     2.06769  |     1.09418
    9 H                |   3 C                |     2.06744  |     1.09404
   10 H                |   3 C                |     2.06721  |     1.09392
   11 H                |   3 C                |     2.06771  |     1.09418
   12 H                |   4 C                |     2.06736  |     1.09400
   13 H                |   4 C                |     2.06748  |     1.09406
   14 H                |   4 C                |     2.06727  |     1.09395
   15 H                |   5 C                |     2.06737  |     1.09401
   16 H                |   5 C                |     2.06757  |     1.09411
   17 H                |   5 C                |     2.06710  |     1.09386
 ------------------------------------------------------------------------------
                         number of included internuclear distances:         16
 ==============================================================================



 ==============================================================================
                                 internuclear angles
 ------------------------------------------------------------------------------
        center 1       |       center 2       |       center 3       |  degrees
 ------------------------------------------------------------------------------
    2 Si               |   1 C                |   6 H                |   110.68
    2 Si               |   1 C                |   7 H                |   110.67
    2 Si               |   1 C                |   8 H                |   110.67
    6 H                |   1 C                |   7 H                |   108.24
    6 H                |   1 C                |   8 H                |   108.24
    7 H                |   1 C                |   8 H                |   108.23
    1 C                |   2 Si               |   3 C                |   109.47
    1 C                |   2 Si               |   4 C                |   109.47
    1 C                |   2 Si               |   5 C                |   109.48
    3 C                |   2 Si               |   4 C                |   109.47
    3 C                |   2 Si               |   5 C                |   109.47
    4 C                |   2 Si               |   5 C                |   109.47
    2 Si               |   3 C                |   9 H                |   110.68
    2 Si               |   3 C                |  10 H                |   110.68
    2 Si               |   3 C                |  11 H                |   110.68
    9 H                |   3 C                |  10 H                |   108.24
    9 H                |   3 C                |  11 H                |   108.23
   10 H                |   3 C                |  11 H                |   108.24
    2 Si               |   4 C                |  12 H                |   110.68
    2 Si               |   4 C                |  13 H                |   110.68
    2 Si               |   4 C                |  14 H                |   110.68
   12 H                |   4 C                |  13 H                |   108.24
   12 H                |   4 C                |  14 H                |   108.24
   13 H                |   4 C                |  14 H                |   108.24
    2 Si               |   5 C                |  15 H                |   110.68
    2 Si               |   5 C                |  16 H                |   110.67
    2 Si               |   5 C                |  17 H                |   110.68
   15 H                |   5 C                |  16 H                |   108.23
   15 H                |   5 C                |  17 H                |   108.24
   16 H                |   5 C                |  17 H                |   108.24
 ------------------------------------------------------------------------------
                            number of included internuclear angles:         30
 ==============================================================================



  library name resolved from: .nwchemrc
  library file name is: </opt/homebrew/Cellar/nwchem/7.2.3/share/nwchem/libraries/>
  


 Summary of "ao basis" -> "" (spherical)
 ------------------------------------------------------------------------------
       Tag                 Description            Shells   Functions and Types
 ---------------- ------------------------------  ------  ---------------------
 *                          def2-svp                  on all atoms 




                           NWChem Geometry Optimization
                           ----------------------------


  no constraints, skipping    0.0000000000000000     
 maximum gradient threshold         (gmax) =   0.000450
 rms gradient threshold             (grms) =   0.000300
 maximum cartesian step threshold   (xmax) =   0.001800
 rms cartesian step threshold       (xrms) =   0.001200
 fixed trust radius                (trust) =   0.300000
 maximum step size to saddle      (sadstp) =   0.100000
 energy precision                  (eprec) =   5.0D-06
 maximum number of steps          (nptopt) =   40
 initial hessian option           (inhess) =    0
 line search option               (linopt) =    1
 hessian update option            (modupd) =    1
 saddle point option              (modsad) =    0
 initial eigen-mode to follow     (moddir) =    0
 initial variable to follow       (vardir) =    0
 follow first negative mode     (firstneg) =    T
 apply conjugacy                    (opcg) =    F
 source of zmatrix                         =   autoz   


          -------------------
          Energy Minimization
          -------------------


 Names of Z-matrix variables 
    1              2              3              4              5         
    6              7              8              9             10         
   11             12             13             14             15         
   16             17             18             19             20         
   21             22             23             24             25         
   26             27             28             29             30         
   31             32             33             34             35         
   36             37             38             39             40         
   41             42             43             44             45         
   46             47             48             49             50         
   51             52             53             54             55         
   56             57             58             59             60         
   61             62             63             64             65         
   66             67             68             69             70         
   71             72             73             74             75         
   76             77             78             79             80         
   81             82         

 Variables with the same non-blank name are constrained to be equal


 Using diagonal initial Hessian 
 Scaling for Hessian diagonals: bonds = 1.00  angles = 0.25  torsions = 0.10

          --------
          Step   0
          --------


                         Geometry "geometry" -> "geometry"
                         ---------------------------------

 Output coordinates in angstroms (scale by  1.889725989 to convert to a.u.)

  No.       Tag          Charge          X              Y              Z
 ---- ---------------- ---------- -------------- -------------- --------------
    1 C                    6.0000     0.38492689     1.35641206    -1.23544274
    2 Si                  14.0000    -0.00000450    -0.00001525    -0.00001450
    3 C                    6.0000     1.37984883    -0.10311531     1.26474489
    4 C                    6.0000    -1.61601545     0.38592259     0.86825726
    5 C                    6.0000    -0.14875358    -1.63914848    -0.89749533
    6 H                    1.0000     0.47608464     2.32303734    -0.73195518
    7 H                    1.0000    -0.40918397     1.43370245    -1.98417189
    8 H                    1.0000     1.32585259     1.15047780    -1.75454995
    9 H                    1.0000     1.48398168     0.84475704     1.80104540
   10 H                    1.0000     2.33360030    -0.32793306     0.77845803
   11 H                    1.0000     1.17494629    -0.89001158     1.99689783
   12 H                    1.0000    -1.55089223     1.34013440     1.39936388
   13 H                    1.0000    -1.85997136    -0.39453391     1.59513073
   14 H                    1.0000    -2.43611986     0.45065339     0.14716644
   15 H                    1.0000     0.78513901    -1.88391810    -1.41206812
   16 H                    1.0000    -0.94982095    -1.60074142    -1.64173402
   17 H                    1.0000    -0.37359321    -2.44583602    -0.19376465

      Atomic Mass 
      ----------- 

      C                 12.000000
      Si                27.976930
      H                  1.007825


 Effective nuclear repulsion energy (a.u.)     246.6585356369

            Nuclear Dipole moment (a.u.) 
            ----------------------------
        X                 Y               Z
 ---------------- ---------------- ----------------
    -0.0000000000    -0.0000000000     0.0000000000


                                 NWChem DFT Module
                                 -----------------


                      Basis "ao basis" -> "ao basis" (spherical)
                      -----
  C (Carbon)
  ----------
            Exponent  Coefficients 
       -------------- ---------------------------------------------------------
  1 S  1.23840169E+03  0.005457
  1 S  1.86290050E+02  0.040638
  1 S  4.22511763E+01  0.180256
  1 S  1.16765579E+01  0.463151
  1 S  3.59305065E+00  0.440872

  2 S  4.02451474E-01  1.000000

  3 S  1.30901827E-01  1.000000

  4 P  9.46809706E+00  0.038388
  4 P  2.01035451E+00  0.211170
  4 P  5.47710047E-01  0.513282

  5 P  1.52686138E-01  1.000000

  6 D  8.00000000E-01  1.000000

  Si (Silicon)
  ------------
            Exponent  Coefficients 
       -------------- ---------------------------------------------------------
  1 S  6.90371187E+03  0.001337
  1 S  1.03843464E+03  0.009997
  1 S  2.35875815E+02  0.044910
  1 S  6.60693852E+01  0.114636
  1 S  2.02479458E+01  0.102801

  2 S  3.43534817E+01  0.070837
  2 S  3.63707882E+00 -0.430288
  2 S  1.40020486E+00 -0.413828

  3 S  2.04844148E-01  1.000000

  4 S  7.79940955E-02  1.000000

  5 P  1.79839074E+02  0.006192
  5 P  4.19072588E+01  0.043399
  5 P  1.29552944E+01  0.156320
  5 P  4.43832674E+00  0.294200
  5 P  1.54622479E+00  0.235368

  6 P  3.56076123E-01  1.000000

  7 P  1.00085138E-01  1.000000

  8 D  3.50000000E-01  1.000000

  H (Hydrogen)
  ------------
            Exponent  Coefficients 
       -------------- ---------------------------------------------------------
  1 S  1.30107010E+01  0.019682
  1 S  1.96225720E+00  0.137965
  1 S  4.44537960E-01  0.478319

  2 S  1.21949620E-01  1.000000

  3 P  8.00000000E-01  1.000000



 Summary of "ao basis" -> "ao basis" (spherical)
 ------------------------------------------------------------------------------
       Tag                 Description            Shells   Functions and Types
 ---------------- ------------------------------  ------  ---------------------
 C                          def2-svp                 6       14   3s2p1d
 Si                         def2-svp                 8       18   4s3p1d
 H                          def2-svp                 3        5   2s1p




 Summary of "ao basis" -> "ao basis" (spherical)
 ------------------------------------------------------------------------------
       Tag                 Description            Shells   Functions and Types
 ---------------- ------------------------------  ------  ---------------------
 C                          def2-svp                 6       14   3s2p1d
 Si                         def2-svp                 8       18   4s3p1d
 H                          def2-svp                 3        5   2s1p


 in cosmo_initialize ...

 solvent parameters
 solvname_short: unkn    
 solvname_long:  unknown                            
 dielec:       80.1000

          ---------------
          -cosmo- solvent
          ---------------
 Cosmo: York-Karplus, doi: 10.1021/jp992097l
 dielectric constant -eps-     =  80.10
 screen = (eps-1)/(eps    )    =   0.98752
 surface charge correction     = lagrangian

 solvent accessible surface
 --------------------------

 ---------- ATOMIC COORDINATES (A.U.) ------------ VDWR(ANG.) --
     1    0.72740634    2.56324712   -2.33464825     2.000
     2   -0.00000851   -0.00002882   -0.00002740     2.457
     3    2.60753619   -0.19485969    2.39002128     2.000
     4   -3.05382640    0.72928795    1.64076831     2.000
     5   -0.28110350   -3.09754148   -1.69602024     2.000
     6    0.89966952    4.38990403   -1.38319473     1.300
     7   -0.77324558    2.70930478   -3.74954119     1.300
     8    2.50549809    2.17408780   -3.31561864     1.300
     9    2.80431875    1.59635934    3.40348230     1.300
    10    4.40986513   -0.61970363    1.47107237     1.300
    11    2.22032654   -1.68187802    3.77358973     1.300
    12   -2.93076135    2.53248680    2.64441428     1.300
    13   -3.51483623   -0.74556098    3.01436000     1.300
    14   -4.60359901    0.85161143    0.27810424     1.300
    15    1.48369759   -3.56008900   -2.66842182     1.300
    16   -1.79490134   -3.02496266   -3.10242745     1.300
    17   -0.70598880   -4.62195988   -0.36616210     1.300
 number of segments per atom =         32
 number of   points per atom =         32
 atom (   nspa,  nppa )
 ----------------------
    1 (     19,     0 )       0
    2 (      8,     0 )       0
    3 (     16,     0 )       0
    4 (     19,     0 )       0
    5 (     19,     0 )       0
    6 (     14,     0 )       0
    7 (     13,     0 )       0
    8 (     15,     0 )       0
    9 (     14,     0 )       0
   10 (     13,     0 )       0
   11 (     14,     0 )       0
   12 (     14,     0 )       0
   13 (     15,     0 )       0
   14 (     14,     0 )       0
   15 (     15,     0 )       0
   16 (     12,     0 )       0
   17 (     15,     0 )       0
 number of -cosmo- surface points =      249
 molecular surface =    146.157 angstrom**2
 molecular volume  =     81.925 angstrom**3
 G(cav/disp)       =      1.591 kcal/mol
 -lineq- algorithm             =   0
 -bem- low  level              =   2
 -bem- from -octahedral-
 gaussian surface charge width =   4.50000
 degree of switching           =   1.00000
 switching function tolerance  =   0.00010
 atomic radii = 
 --------------
    1  6.000  2.000
    2 14.000  2.457
    3  6.000  2.000
    4  6.000  2.000
    5  6.000  2.000
    6  1.000  1.300
    7  1.000  1.300
    8  1.000  1.300
    9  1.000  1.300
   10  1.000  1.300
   11  1.000  1.300
   12  1.000  1.300
   13  1.000  1.300
   14  1.000  1.300
   15  1.000  1.300
   16  1.000  1.300
   17  1.000  1.300
 ...... end of -cosmo- initialization ......


  Caching 1-el integrals 

            General Information
            -------------------
          SCF calculation type: DFT
          Wavefunction type:  closed shell.
          No. of atoms     :    17
          No. of electrons :    50
           Alpha electrons :    25
            Beta electrons :    25
          Charge           :     0
          Spin multiplicity:     1
          Use of symmetry is: off; symmetry adaption is: off
          Maximum number of iterations:  50
          AO basis - number of functions:   134
                     number of shells:    68
          Convergence on energy requested:  1.00D-06
          Convergence on density requested:  1.00D-05
          Convergence on gradient requested:  5.00D-04

              XC Information
              --------------
                         B3LYP Method XC Potential
                     Hartree-Fock (Exact) Exchange  0.200          
                        Slater Exchange Functional  0.800 local    
                    Becke 1988 Exchange Functional  0.720 non-local
              Lee-Yang-Parr Correlation Functional  0.810          
                  VWN I RPA Correlation Functional  0.190 local    

             Grid Information
             ----------------
          Grid used for XC integration:  medium    
          Radial quadrature: Mura-Knowles        
          Angular quadrature: Lebedev. 
          Tag              B.-S. Rad. Rad. Pts. Rad. Cut. Ang. Pts.
          ---              ---------- --------- --------- ---------
          C                   0.70       49          11.0       434
          Si                  1.10       88           8.0       590
          H                   0.35       45          12.0       434
          Grid pruning is: on 
          Number of quadrature shells:   824
          Spatial weights used:  Erf1

          Convergence Information
          -----------------------
          Convergence aids based upon iterative change in 
          total energy or number of iterations. 
          Levelshifting, if invoked, occurs when the 
          HOMO/LUMO gap drops below (HL_TOL):  1.00D-02
          DIIS, if invoked, will attempt to extrapolate 
          using up to (NFOCK): 10 stored Fock matrices.

                    Damping( 0%)  Levelshifting(0.5)       DIIS
                  --------------- ------------------- ---------------
          dE  on:    start            ASAP                start   
          dE off:    2 iters         50 iters            50 iters 


      Screening Tolerance Information
      -------------------------------
          Density screening/tol_rho:  1.00D-10
          AO Gaussian exp screening on grid/accAOfunc:  14
          CD Gaussian exp screening on grid/accCDfunc:  20
          XC Gaussian exp screening on grid/accXCfunc:  20
          Schwarz screening/accCoul:  1.00D-08


      Superposition of Atomic Density Guess
      -------------------------------------

 Sum of atomic energies:        -445.22913455

      Non-variational initial energy
      ------------------------------

 Total energy =    -448.592965
 1-e energy   =   -1097.294321
 2-e energy   =     402.042820
 HOMO         =      -0.371032
 LUMO         =       0.069665

  WARNING: movecs_in_org=atomic not equal to movecs_in=./CONF1.movecs
   Time after variat. SCF:      0.5
   Time prior to 1st pass:      0.5

 Integral file          = ./CONF1.aoints.0
 Record size in doubles =  65536        No. of integs per rec  =  43688
 Max. records in memory =    161        Max. records in file   =  32966
 No. of bits per label  =      8        No. of bits per value  =     64


 #quartets = 2.336D+06 #integrals = 3.005D+07 #direct =  0.0% #cached =100.0%


File balance: exchanges=    15  moved=    88  time=   0.0

  avail0,avail1,avail0-avail1                138798               138798                    0
  avail0,avail1,avail0-avail1                138798               138813                  -15
  avail0,avail1,avail0-avail1                138798               138813                  -15
  avail0,avail1,avail0-avail1                138798               138813                  -15

 Grid_pts file          = ./CONF1.gridpts.0
 Record size in doubles =  12289        No. of grid_pts per rec  =   3070
 Max. records in memory =     23        Max. recs in file   =      2746


           Memory utilization after 1st SCF pass: 
           Heap Space remaining (MW):       15.35            15351348
          Stack Space remaining (MW):       26.21            26213212

   convergence    iter        energy       DeltaE   RMS-Dens  Diis-err    time
 ---------------- ----- ----------------- --------- --------- ---------  ------
     COSMO gas phase
 d= 0,ls=0.0,diis     1   -448.9560543944 -6.96D+02  5.25D-03  3.80D-01     1.8
 d= 0,ls=0.0,diis     2   -448.9924648900 -3.64D-02  2.08D-03  7.00D-02     2.3
 d= 0,ls=0.0,diis     3   -448.9976182557 -5.15D-03  9.21D-04  2.89D-02     2.8
 d= 0,ls=0.0,diis     4   -449.0015031260 -3.88D-03  3.81D-05  1.48D-05     3.4
 d= 0,ls=0.0,diis     5   -449.0015052078 -2.08D-06  1.22D-05  1.93D-06     4.0
 d= 0,ls=0.0,diis     6   -449.0015055045 -2.97D-07  1.09D-06  3.20D-08     4.5

           Memory utilization after 1st SCF pass: 
           Heap Space remaining (MW):       15.35            15350588
          Stack Space remaining (MW):       26.21            26213212

   convergence    iter        energy       DeltaE   RMS-Dens  Diis-err    time
 ---------------- ----- ----------------- --------- --------- ---------  ------
     COSMO solvation phase
 d= 0,ls=0.0,diis     1   -449.0027383476 -1.23D-03  3.72D-04  2.65D-04     5.1
 d= 0,ls=0.0,diis     2   -449.0027901261 -5.18D-05  6.40D-05  7.18D-05     5.7
 d= 0,ls=0.0,diis     3   -449.0027980209 -7.89D-06  2.33D-05  1.28D-05     6.3
 d= 0,ls=0.0,diis     4   -449.0027997372 -1.72D-06  4.89D-06  5.46D-07     6.9
 d= 0,ls=0.0,diis     5   -449.0027998052 -6.80D-08  1.46D-06  2.68D-08     7.5


         Total DFT energy =     -449.002799805197
      One electron energy =    -1103.975182271575
           Coulomb energy =      455.504327443703
    Exchange-Corr. energy =      -47.173472950700
 Nuclear repulsion energy =      246.658535636892

             COSMO energy =       -0.017007663518

 Numeric. integr. density =       49.999986750229

     Total iterative time =      7.0s


                                   COSMO solvation results
                                   -----------------------

                 gas phase energy =      -449.001505504517
                 sol phase energy =      -449.002799805197
 (electrostatic) solvation energy =         0.001294300680 (    0.81 kcal/mol)

                       DFT Final Molecular Orbital Analysis
                       ------------------------------------

 Vector    1  Occ=2.000000D+00  E=-6.608442D+01
              MO Center= -4.5D-06, -1.5D-05, -1.4D-05, r^2= 4.7D-03
   Bfn.  Coefficient  Atom+Function         Bfn.  Coefficient  Atom+Function  
  ----- ------------  ---------------      ----- ------------  ---------------
    15      0.994744   2 Si s         

 Vector    2  Occ=2.000000D+00  E=-1.015646D+01
              MO Center=  1.4D+00, -1.0D-01,  1.2D+00, r^2= 1.5D-01
   Bfn.  Coefficient  Atom+Function         Bfn.  Coefficient  Atom+Function  
  ----- ------------  ---------------      ----- ------------  ---------------
    33      0.981202   3 C  s                47     -0.075353   4 C  s         
    61     -0.065806   5 C  s                 1     -0.054913   1 C  s         
    34      0.052368   3 C  s                35     -0.045525   3 C  s         

 Vector    3  Occ=2.000000D+00  E=-1.015631D+01
              MO Center= -1.3D+00,  7.6D-02,  5.5D-01, r^2= 1.4D+00
   Bfn.  Coefficient  Atom+Function         Bfn.  Coefficient  Atom+Function  
  ----- ------------  ---------------      ----- ------------  ---------------
    47      0.896363   4 C  s                61     -0.395295   5 C  s         
     1     -0.121504   1 C  s                48      0.047886   4 C  s         
    49     -0.041184   4 C  s                33      0.035549   3 C  s         

 Vector    4  Occ=2.000000D+00  E=-1.015628D+01
              MO Center= -1.6D-01, -7.9D-01, -8.1D-01, r^2= 2.2D+00
   Bfn.  Coefficient  Atom+Function         Bfn.  Coefficient  Atom+Function  
  ----- ------------  ---------------      ----- ------------  ---------------
    61      0.818420   5 C  s                 1     -0.464450   1 C  s         
    47      0.295938   4 C  s                33      0.051661   3 C  s         
    62      0.043675   5 C  s                63     -0.038037   5 C  s         

 Vector    5  Occ=2.000000D+00  E=-1.015623D+01
              MO Center=  1.5D-01,  8.2D-01, -9.9D-01, r^2= 1.9D+00
   Bfn.  Coefficient  Atom+Function         Bfn.  Coefficient  Atom+Function  
  ----- ------------  ---------------      ----- ------------  ---------------
     1      0.861576   1 C  s                61      0.381321   5 C  s         
    47      0.281214   4 C  s                33      0.095475   3 C  s         
     2      0.045847   1 C  s                 3     -0.041229   1 C  s         
    18      0.034630   2 Si s         

 Vector    6  Occ=2.000000D+00  E=-5.252984D+00
              MO Center= -3.8D-06, -1.5D-05, -1.2D-05, r^2= 1.1D-01
   Bfn.  Coefficient  Atom+Function         Bfn.  Coefficient  Atom+Function  
  ----- ------------  ---------------      ----- ------------  ---------------
    16      1.018981   2 Si s                15      0.293651   2 Si s         
    17     -0.055839   2 Si s         

 Vector    7  Occ=2.000000D+00  E=-3.614604D+00
              MO Center=  1.1D-04, -2.8D-05,  1.4D-04, r^2= 1.0D-01
   Bfn.  Coefficient  Atom+Function         Bfn.  Coefficient  Atom+Function  
  ----- ------------  ---------------      ----- ------------  ---------------
    19      0.822942   2 Si px               21      0.538956   2 Si pz        
    22      0.043044   2 Si px               24      0.028190   2 Si pz        

 Vector    8  Occ=2.000000D+00  E=-3.614601D+00
              MO Center= -1.1D-04,  8.1D-05, -2.1D-05, r^2= 1.0D-01
   Bfn.  Coefficient  Atom+Function         Bfn.  Coefficient  Atom+Function  
  ----- ------------  ---------------      ----- ------------  ---------------
    21      0.820507   2 Si pz               19     -0.539224   2 Si px        
    20     -0.065301   2 Si py               24      0.042916   2 Si pz        
    22     -0.028204   2 Si px        

 Vector    9  Occ=2.000000D+00  E=-3.614599D+00
              MO Center= -1.0D-05, -9.8D-05, -1.6D-04, r^2= 1.0D-01
   Bfn.  Coefficient  Atom+Function         Bfn.  Coefficient  Atom+Function  
  ----- ------------  ---------------      ----- ------------  ---------------
    20      0.981552   2 Si py               21      0.067475   2 Si pz        
    23      0.051339   2 Si py        

 Vector   10  Occ=2.000000D+00  E=-7.135498D-01
              MO Center=  2.1D-03, -9.4D-04,  3.3D-03, r^2= 4.0D+00
   Bfn.  Coefficient  Atom+Function         Bfn.  Coefficient  Atom+Function  
  ----- ------------  ---------------      ----- ------------  ---------------
    17      0.290438   2 Si s                34      0.225046   3 C  s         
     2      0.223901   1 C  s                48      0.224293   4 C  s         
    62      0.224187   5 C  s                16      0.196677   2 Si s         
    33     -0.116372   3 C  s                 1     -0.115773   1 C  s         
    47     -0.115981   4 C  s                61     -0.115934   5 C  s         

 Vector   11  Occ=2.000000D+00  E=-6.674084D-01
              MO Center=  7.9D-01, -1.1D-01,  9.8D-01, r^2= 3.4D+00
   Bfn.  Coefficient  Atom+Function         Bfn.  Coefficient  Atom+Function  
  ----- ------------  ---------------      ----- ------------  ---------------
    34      0.423423   3 C  s                33     -0.214825   3 C  s         
    48     -0.193474   4 C  s                90      0.165467   9 H  s         
    95      0.166233  10 H  s               100      0.164605  11 H  s         
    62     -0.143178   5 C  s                47      0.098162   4 C  s         
    35      0.096823   3 C  s                 2     -0.088191   1 C  s         

 Vector   12  Occ=2.000000D+00  E=-6.672994D-01
              MO Center= -9.0D-01, -6.2D-01, -7.7D-03, r^2= 3.8D+00
   Bfn.  Coefficient  Atom+Function         Bfn.  Coefficient  Atom+Function  
  ----- ------------  ---------------      ----- ------------  ---------------
    48      0.349642   4 C  s                62     -0.346539   5 C  s         
    47     -0.177395   4 C  s                61      0.175825   5 C  s         
   105      0.139979  12 H  s               120     -0.138781  15 H  s         
   110      0.135414  13 H  s               115      0.134340  14 H  s         
   125     -0.134059  16 H  s               130     -0.133257  17 H  s         

 Vector   13  Occ=2.000000D+00  E=-6.672547D-01
              MO Center=  1.1D-01,  7.4D-01, -9.7D-01, r^2= 3.5D+00
   Bfn.  Coefficient  Atom+Function         Bfn.  Coefficient  Atom+Function  
  ----- ------------  ---------------      ----- ------------  ---------------
     2      0.418052   1 C  s                 1     -0.212087   1 C  s         
    62     -0.207890   5 C  s                75      0.164384   6 H  s         
    85      0.163617   8 H  s                80      0.161834   7 H  s         
    48     -0.155226   4 C  s                61      0.105479   5 C  s         
     3      0.095459   1 C  s               130     -0.086282  17 H  s         

 Vector   14  Occ=2.000000D+00  E=-4.525733D-01
              MO Center=  3.4D-04,  3.3D-05,  5.8D-04, r^2= 3.9D+00
   Bfn.  Coefficient  Atom+Function         Bfn.  Coefficient  Atom+Function  
  ----- ------------  ---------------      ----- ------------  ---------------
    17      0.543248   2 Si s                16      0.335372   2 Si s         
    65      0.161744   5 C  py               50      0.159338   4 C  px        
    36     -0.136241   3 C  px                5     -0.133766   1 C  py        
    38     -0.124780   3 C  pz                6      0.121692   1 C  pz        
    66      0.088376   5 C  pz               52     -0.085810   4 C  pz        

 Vector   15  Occ=2.000000D+00  E=-4.123040D-01
              MO Center=  5.5D-01, -7.5D-02, -7.9D-02, r^2= 4.8D+00
   Bfn.  Coefficient  Atom+Function         Bfn.  Coefficient  Atom+Function  
  ----- ------------  ---------------      ----- ------------  ---------------
    95      0.208036  10 H  s                38     -0.174632   3 C  pz        
     5     -0.173149   1 C  py               36      0.168172   3 C  px        
    75     -0.165350   6 H  s               130     -0.160157  17 H  s         
    64      0.156760   5 C  px               85      0.145049   8 H  s         
   120      0.140084  15 H  s                50     -0.123948   4 C  px        

 Vector   16  Occ=2.000000D+00  E=-4.122853D-01
              MO Center= -6.6D-02,  7.3D-02,  6.2D-01, r^2= 4.8D+00
   Bfn.  Coefficient  Atom+Function         Bfn.  Coefficient  Atom+Function  
  ----- ------------  ---------------      ----- ------------  ---------------
    51      0.244426   4 C  py               37      0.242786   3 C  py        
   100     -0.182531  11 H  s               105      0.181707  12 H  s         
    90      0.172880   9 H  s               110     -0.172595  13 H  s         
    66     -0.160237   5 C  pz                6      0.156857   1 C  pz        
    26      0.149417   2 Si py               23      0.100157   2 Si py        

 Vector   17  Occ=2.000000D+00  E=-4.121646D-01
              MO Center= -4.8D-01, -5.6D-03, -5.3D-01, r^2= 4.6D+00
   Bfn.  Coefficient  Atom+Function         Bfn.  Coefficient  Atom+Function  
  ----- ------------  ---------------      ----- ------------  ---------------
     4      0.218308   1 C  px               52      0.218219   4 C  pz        
    64      0.190167   5 C  px              125     -0.189681  16 H  s         
    80     -0.181107   7 H  s               115     -0.171308  14 H  s         
    85      0.126013   8 H  s                25      0.121847   2 Si px        
   120      0.118993  15 H  s               110      0.114788  13 H  s         

 Vector   18  Occ=2.000000D+00  E=-3.961068D-01
              MO Center=  1.3D-02, -1.9D-03, -1.4D-03, r^2= 5.4D+00
   Bfn.  Coefficient  Atom+Function         Bfn.  Coefficient  Atom+Function  
  ----- ------------  ---------------      ----- ------------  ---------------
    52      0.189193   4 C  pz               66     -0.188100   5 C  pz        
    75     -0.177382   6 H  s                95     -0.177901  10 H  s         
   130     -0.177235  17 H  s               115     -0.175412  14 H  s         
     6     -0.162204   1 C  pz               38      0.160412   3 C  pz        
     5     -0.145643   1 C  py               36     -0.143957   3 C  px        

 Vector   19  Occ=2.000000D+00  E=-3.960633D-01
              MO Center=  4.8D-03,  5.6D-03,  1.4D-02, r^2= 5.4D+00
   Bfn.  Coefficient  Atom+Function         Bfn.  Coefficient  Atom+Function  
  ----- ------------  ---------------      ----- ------------  ---------------
    37      0.215608   3 C  py                4      0.212451   1 C  px        
    51     -0.213114   4 C  py               64     -0.210277   5 C  px        
    90      0.156630   9 H  s                85      0.155578   8 H  s         
   110      0.155984  13 H  s               125      0.153705  16 H  s         
   100     -0.152529  11 H  s               105     -0.151247  12 H  s         

 Vector   20  Occ=2.000000D+00  E=-3.776693D-01
              MO Center= -2.7D-01, -2.4D-01,  9.4D-02, r^2= 5.5D+00
   Bfn.  Coefficient  Atom+Function         Bfn.  Coefficient  Atom+Function  
  ----- ------------  ---------------      ----- ------------  ---------------
    64      0.250454   5 C  px              105     -0.224319  12 H  s         
   120      0.224405  15 H  s                51     -0.195369   4 C  py        
   115      0.160376  14 H  s                95     -0.158971  10 H  s         
    52     -0.144985   4 C  pz               38      0.132235   3 C  pz        
    50     -0.124716   4 C  px               36     -0.115443   3 C  px        

 Vector   21  Occ=2.000000D+00  E=-3.776374D-01
              MO Center= -4.6D-03, -1.1D-02, -1.3D-01, r^2= 5.6D+00
   Bfn.  Coefficient  Atom+Function         Bfn.  Coefficient  Atom+Function  
  ----- ------------  ---------------      ----- ------------  ---------------
    66      0.205328   5 C  pz               75     -0.188288   6 H  s         
   130      0.188440  17 H  s                 5     -0.164825   1 C  py        
   110     -0.164914  13 H  s                85      0.163923   8 H  s         
   125     -0.159821  16 H  s                90      0.157937   9 H  s         
    52     -0.155694   4 C  pz                6     -0.152482   1 C  pz        

 Vector   22  Occ=2.000000D+00  E=-3.775579D-01
              MO Center=  2.5D-01,  2.5D-01,  1.0D-02, r^2= 5.5D+00
   Bfn.  Coefficient  Atom+Function         Bfn.  Coefficient  Atom+Function  
  ----- ------------  ---------------      ----- ------------  ---------------
     4      0.253501   1 C  px               80     -0.226976   7 H  s         
   100      0.223857  11 H  s                37     -0.209769   3 C  py        
    85      0.150702   8 H  s               110     -0.149994  13 H  s         
    51      0.131948   4 C  py              125      0.126345  16 H  s         
    90     -0.125022   9 H  s                52     -0.119107   4 C  pz        

 Vector   23  Occ=2.000000D+00  E=-2.941477D-01
              MO Center=  6.0D-02,  6.8D-02,  6.6D-01, r^2= 3.5D+00
   Bfn.  Coefficient  Atom+Function         Bfn.  Coefficient  Atom+Function  
  ----- ------------  ---------------      ----- ------------  ---------------
    50      0.292840   4 C  px               36      0.289833   3 C  px        
    22     -0.250963   2 Si px               38      0.217168   3 C  pz        
    53      0.163998   4 C  px               39      0.161976   3 C  px        
    35     -0.149530   3 C  s                25     -0.146463   2 Si px        
    19      0.141279   2 Si px               41      0.131821   3 C  pz        

 Vector   24  Occ=2.000000D+00  E=-2.940969D-01
              MO Center= -1.5D-01, -8.3D-02, -3.6D-03, r^2= 3.9D+00
   Bfn.  Coefficient  Atom+Function         Bfn.  Coefficient  Atom+Function  
  ----- ------------  ---------------      ----- ------------  ---------------
    24      0.250862   2 Si pz               50      0.205912   4 C  px        
    65     -0.206743   5 C  py                6     -0.185614   1 C  pz        
    38     -0.184697   3 C  pz               66     -0.176058   5 C  pz        
    52     -0.174809   4 C  pz               27      0.146864   2 Si pz        
    21     -0.141217   2 Si pz               53      0.125412   4 C  px        

 Vector   25  Occ=2.000000D+00  E=-2.940888D-01
              MO Center=  8.5D-02,  1.5D-02, -6.6D-01, r^2= 3.5D+00
   Bfn.  Coefficient  Atom+Function         Bfn.  Coefficient  Atom+Function  
  ----- ------------  ---------------      ----- ------------  ---------------
    65      0.300673   5 C  py                5      0.283206   1 C  py        
    23     -0.251622   2 Si py                6     -0.205870   1 C  pz        
    68      0.168661   5 C  py                8      0.157741   1 C  py        
     3     -0.146822   1 C  s                26     -0.147261   2 Si py        
    20      0.141644   2 Si py               63      0.131678   5 C  s         

 Vector   26  Occ=0.000000D+00  E= 4.378596D-02
              MO Center=  5.4D-03, -2.1D-03,  5.5D-03, r^2= 9.4D+00
   Bfn.  Coefficient  Atom+Function         Bfn.  Coefficient  Atom+Function  
  ----- ------------  ---------------      ----- ------------  ---------------
     3      1.238294   1 C  s                35      1.244232   3 C  s         
    49      1.240804   4 C  s                63      1.240401   5 C  s         
    86     -0.527342   8 H  s                91     -0.527636   9 H  s         
    96     -0.527750  10 H  s               101     -0.528005  11 H  s         
   106     -0.527357  12 H  s               111     -0.526106  13 H  s         

 Vector   27  Occ=0.000000D+00  E= 9.401069D-02
              MO Center=  4.5D-01, -1.3D-01,  6.9D-01, r^2= 7.7D+00
   Bfn.  Coefficient  Atom+Function         Bfn.  Coefficient  Atom+Function  
  ----- ------------  ---------------      ----- ------------  ---------------
    35      2.320774   3 C  s                49     -1.242945   4 C  s         
    63     -0.930168   5 C  s               101     -0.883568  11 H  s         
    91     -0.843268   9 H  s                96     -0.828685  10 H  s         
    25     -0.824163   2 Si px              106      0.523805  12 H  s         
   111      0.482259  13 H  s                27     -0.448036   2 Si pz        

 Vector   28  Occ=0.000000D+00  E= 9.409977D-02
              MO Center=  2.0D-01,  4.8D-01, -7.2D-01, r^2= 7.7D+00
   Bfn.  Coefficient  Atom+Function         Bfn.  Coefficient  Atom+Function  
  ----- ------------  ---------------      ----- ------------  ---------------
     3      2.371540   1 C  s                63     -1.257078   5 C  s         
    86     -0.893319   8 H  s                81     -0.871699   7 H  s         
    76     -0.844408   6 H  s                26     -0.803629   2 Si py        
    35     -0.612207   3 C  s               126      0.509213  16 H  s         
   121      0.502647  15 H  s                49     -0.497714   4 C  s         

 Vector   29  Occ=0.000000D+00  E= 9.412886D-02
              MO Center= -6.4D-01, -3.5D-01,  3.1D-02, r^2= 7.9D+00
   Bfn.  Coefficient  Atom+Function         Bfn.  Coefficient  Atom+Function  
  ----- ------------  ---------------      ----- ------------  ---------------
    49      2.020281   4 C  s                63     -1.851505   5 C  s         
   116     -0.785692  14 H  s               111     -0.747627  13 H  s         
   131      0.734006  17 H  s               106     -0.689922  12 H  s         
   126      0.689289  16 H  s                27     -0.685856   2 Si pz        
   121      0.614416  15 H  s                26     -0.488078   2 Si py        

 Vector   30  Occ=0.000000D+00  E= 1.084919D-01
              MO Center=  9.2D-01, -7.4D-01, -7.1D-02, r^2= 7.5D+00
   Bfn.  Coefficient  Atom+Function         Bfn.  Coefficient  Atom+Function  
  ----- ------------  ---------------      ----- ------------  ---------------
    96      0.988490  10 H  s               121      0.964789  15 H  s         
    86      0.886478   8 H  s               131     -0.784275  17 H  s         
   101     -0.766353  11 H  s               111     -0.627395  13 H  s         
    41      0.489207   3 C  pz               67     -0.483283   5 C  px        
    39     -0.465781   3 C  px               69      0.438913   5 C  pz        

 Vector   31  Occ=0.000000D+00  E= 1.085254D-01
              MO Center=  1.0D-01,  6.4D-01,  9.4D-01, r^2= 7.6D+00
   Bfn.  Coefficient  Atom+Function         Bfn.  Coefficient  Atom+Function  
  ----- ------------  ---------------      ----- ------------  ---------------
    91      1.008142   9 H  s               106      0.954485  12 H  s         
    76      0.911328   6 H  s               111     -0.738552  13 H  s         
   101     -0.688405  11 H  s                40     -0.675746   3 C  py        
    54     -0.646470   4 C  py              131     -0.556762  17 H  s         
     8     -0.465760   1 C  py               86     -0.427049   8 H  s         

 Vector   32  Occ=0.000000D+00  E= 1.087025D-01
              MO Center= -1.0D+00,  9.9D-02, -8.6D-01, r^2= 7.1D+00
   Bfn.  Coefficient  Atom+Function         Bfn.  Coefficient  Atom+Function  
  ----- ------------  ---------------      ----- ------------  ---------------
   116      1.053195  14 H  s                81      1.043671   7 H  s         
   126      1.042427  16 H  s                55      0.541894   4 C  pz        
     7      0.514512   1 C  px               67      0.470104   5 C  px        
    76     -0.443143   6 H  s               106     -0.440017  12 H  s         
   131     -0.427423  17 H  s               111     -0.417138  13 H  s         

 Vector   33  Occ=0.000000D+00  E= 1.397287D-01
              MO Center=  2.0D-03, -1.5D-03,  8.6D-03, r^2= 8.4D+00
   Bfn.  Coefficient  Atom+Function         Bfn.  Coefficient  Atom+Function  
  ----- ------------  ---------------      ----- ------------  ---------------
   101      0.853452  11 H  s                81      0.848562   7 H  s         
   106      0.851202  12 H  s               121      0.851459  15 H  s         
    91     -0.705326   9 H  s               111     -0.703846  13 H  s         
    86     -0.698563   8 H  s               126     -0.696972  16 H  s         
    67     -0.631873   5 C  px               54     -0.615512   4 C  py        

 Vector   34  Occ=0.000000D+00  E= 1.398134D-01
              MO Center=  1.0D-02,  5.6D-04, -1.2D-03, r^2= 8.4D+00
   Bfn.  Coefficient  Atom+Function         Bfn.  Coefficient  Atom+Function  
  ----- ------------  ---------------      ----- ------------  ---------------
    76      0.899504   6 H  s                96      0.900561  10 H  s         
   131      0.896228  17 H  s               116      0.891647  14 H  s         
    86     -0.580812   8 H  s                91     -0.578137   9 H  s         
   111     -0.575026  13 H  s               126     -0.577779  16 H  s         
    55      0.559276   4 C  pz               69     -0.557233   5 C  pz        

 Vector   35  Occ=0.000000D+00  E= 1.710375D-01
              MO Center=  2.6D-01, -2.2D-02, -6.4D-02, r^2= 6.1D+00
   Bfn.  Coefficient  Atom+Function         Bfn.  Coefficient  Atom+Function  
  ----- ------------  ---------------      ----- ------------  ---------------
    27      1.964415   2 Si pz               96     -0.883035  10 H  s         
    86      0.857526   8 H  s                39      0.837287   3 C  px        
    26     -0.668151   2 Si py                8     -0.659527   1 C  py        
    76      0.623252   6 H  s               131      0.529839  17 H  s         
    91     -0.487704   9 H  s                 7     -0.452527   1 C  px        

 Vector   36  Occ=0.000000D+00  E= 1.710727D-01
              MO Center=  2.0D-01,  1.2D-01,  1.8D-01, r^2= 6.4D+00
   Bfn.  Coefficient  Atom+Function         Bfn.  Coefficient  Atom+Function  
  ----- ------------  ---------------      ----- ------------  ---------------
    26      1.439093   2 Si py               25     -1.233448   2 Si px        
   106     -0.839888  12 H  s                91      0.813983   9 H  s         
   121      0.736848  15 H  s                27      0.614147   2 Si pz        
   111     -0.592631  13 H  s                53     -0.583740   4 C  px        
    68      0.583179   5 C  py               41     -0.554041   3 C  pz        

 Vector   37  Occ=0.000000D+00  E= 1.710826D-01
              MO Center=  1.4D-01, -2.4D-01,  1.8D-01, r^2= 6.2D+00
   Bfn.  Coefficient  Atom+Function         Bfn.  Coefficient  Atom+Function  
  ----- ------------  ---------------      ----- ------------  ---------------
    25      1.662747   2 Si px               26      1.144748   2 Si py        
   101     -1.021728  11 H  s               121      0.803933  15 H  s         
    41      0.670649   3 C  pz               68      0.556878   5 C  py        
   111      0.542032  13 H  s                40     -0.522554   3 C  py        
    55     -0.523359   4 C  pz               86     -0.491204   8 H  s         

 Vector   38  Occ=0.000000D+00  E= 1.712117D-01
              MO Center= -3.8D-01, -2.4D-02,  9.2D-02, r^2= 9.2D+00
   Bfn.  Coefficient  Atom+Function         Bfn.  Coefficient  Atom+Function  
  ----- ------------  ---------------      ----- ------------  ---------------
   111      1.093695  13 H  s               106     -1.075206  12 H  s         
   131     -1.006867  17 H  s                76      0.989183   6 H  s         
   121      0.886428  15 H  s                54      0.867348   4 C  py        
    86     -0.722178   8 H  s                26     -0.649261   2 Si py        
    67     -0.617019   5 C  px                8     -0.527329   1 C  py        

 Vector   39  Occ=0.000000D+00  E= 1.712761D-01
              MO Center= -2.1D-01,  1.4D-01, -1.1D-01, r^2= 9.4D+00
   Bfn.  Coefficient  Atom+Function         Bfn.  Coefficient  Atom+Function  
  ----- ------------  ---------------      ----- ------------  ---------------
   116      1.358696  14 H  s                96     -1.088812  10 H  s         
    81     -1.074642   7 H  s               101      0.788031  11 H  s         
     7     -0.641441   1 C  px               86      0.635491   8 H  s         
    55      0.567348   4 C  pz              111     -0.563885  13 H  s         
    53      0.559306   4 C  px              121      0.485491  15 H  s         

 Vector   40  Occ=0.000000D+00  E= 1.713113D-01
              MO Center= -3.7D-02,  2.7D-02, -2.9D-01, r^2= 9.4D+00
   Bfn.  Coefficient  Atom+Function         Bfn.  Coefficient  Atom+Function  
  ----- ------------  ---------------      ----- ------------  ---------------
   126      1.357927  16 H  s                91     -1.110329   9 H  s         
    81     -0.921122   7 H  s                76      0.883354   6 H  s         
    69      0.696912   5 C  pz              101      0.696794  11 H  s         
   131     -0.668954  17 H  s                 9     -0.627016   1 C  pz        
    40      0.594041   3 C  py               26      0.546980   2 Si py        

 Vector   41  Occ=0.000000D+00  E= 2.136380D-01
              MO Center=  4.3D-04,  1.2D-04,  5.2D-04, r^2= 4.2D+00
   Bfn.  Coefficient  Atom+Function         Bfn.  Coefficient  Atom+Function  
  ----- ------------  ---------------      ----- ------------  ---------------
    17      1.857312   2 Si s                16      0.527697   2 Si s         
    68     -0.401327   5 C  py               53     -0.396275   4 C  px        
    39      0.338240   3 C  px                8      0.332670   1 C  py        
    41      0.310185   3 C  pz                9     -0.302601   1 C  pz        
    69     -0.219016   5 C  pz               55      0.212301   4 C  pz        

 Vector   42  Occ=0.000000D+00  E= 3.341100D-01
              MO Center= -3.2D-05, -3.7D-04,  1.4D-04, r^2= 6.3D+00
   Bfn.  Coefficient  Atom+Function         Bfn.  Coefficient  Atom+Function  
  ----- ------------  ---------------      ----- ------------  ---------------
    18      0.792969   2 Si s                81     -0.437948   7 H  s         
   101     -0.436679  11 H  s               106     -0.436044  12 H  s         
   121     -0.436388  15 H  s                80      0.321901   7 H  s         
   100      0.322863  11 H  s               105      0.322671  12 H  s         
   120      0.322636  15 H  s                75     -0.224570   6 H  s         

 Vector   43  Occ=0.000000D+00  E= 3.341450D-01
              MO Center= -3.5D-04, -7.2D-04,  5.1D-04, r^2= 6.3D+00
   Bfn.  Coefficient  Atom+Function         Bfn.  Coefficient  Atom+Function  
  ----- ------------  ---------------      ----- ------------  ---------------
    86      0.376979   8 H  s                91      0.377234   9 H  s         
   111      0.377642  13 H  s               126      0.378776  16 H  s         
    85     -0.317638   8 H  s                90     -0.317884   9 H  s         
   110     -0.317512  13 H  s               125     -0.317165  16 H  s         
    76     -0.278605   6 H  s                96     -0.278550  10 H  s         

 Vector   44  Occ=0.000000D+00  E= 3.345152D-01
              MO Center=  1.7D-04,  2.1D-04,  4.3D-04, r^2= 6.3D+00
   Bfn.  Coefficient  Atom+Function         Bfn.  Coefficient  Atom+Function  
  ----- ------------  ---------------      ----- ------------  ---------------
    18      7.570670   2 Si s                17     -1.941059   2 Si s         
     3     -0.850935   1 C  s                35     -0.852670   3 C  s         
    49     -0.850514   4 C  s                63     -0.850597   5 C  s         
    68     -0.757222   5 C  py               53     -0.739431   4 C  px        
    39      0.626006   3 C  px                8      0.621382   1 C  py        

 Vector   45  Occ=0.000000D+00  E= 4.170799D-01
              MO Center= -3.7D-01,  2.1D-01,  8.5D-01, r^2= 5.6D+00
   Bfn.  Coefficient  Atom+Function         Bfn.  Coefficient  Atom+Function  
  ----- ------------  ---------------      ----- ------------  ---------------
    22      0.943650   2 Si px               53      0.887656   4 C  px        
    41      0.677178   3 C  pz               55     -0.565658   4 C  pz        
    39      0.554880   3 C  px              105      0.287823  12 H  s         
   100     -0.259788  11 H  s                54     -0.250589   4 C  py        
   110      0.247664  13 H  s                31     -0.230728   2 Si d  1      

 Vector   46  Occ=0.000000D+00  E= 4.171513D-01
              MO Center=  4.7D-01,  7.8D-01, -5.8D-01, r^2= 5.3D+00
   Bfn.  Coefficient  Atom+Function         Bfn.  Coefficient  Atom+Function  
  ----- ------------  ---------------      ----- ------------  ---------------
     8      0.861540   1 C  py                9     -0.771331   1 C  pz        
    24     -0.675460   2 Si pz               23      0.660335   2 Si py        
    39     -0.543174   3 C  px               41     -0.374706   3 C  pz        
    69      0.305049   5 C  pz                7      0.282626   1 C  px        
    85     -0.283056   8 H  s                75     -0.268011   6 H  s         

 Vector   47  Occ=0.000000D+00  E= 4.172367D-01
              MO Center= -9.9D-02, -9.9D-01, -2.7D-01, r^2= 5.4D+00
   Bfn.  Coefficient  Atom+Function         Bfn.  Coefficient  Atom+Function  
  ----- ------------  ---------------      ----- ------------  ---------------
    68      1.049666   5 C  py               23      0.675636   2 Si py        
    24      0.659036   2 Si pz               53     -0.531579   4 C  px        
    69      0.519756   5 C  pz               39      0.468897   3 C  px        
    41      0.313761   3 C  pz              130      0.296194  17 H  s         
   120      0.238687  15 H  s               125      0.233341  16 H  s         

 Vector   48  Occ=0.000000D+00  E= 5.069515D-01
              MO Center=  2.6D-01, -8.2D-02, -1.5D-02, r^2= 7.1D+00
   Bfn.  Coefficient  Atom+Function         Bfn.  Coefficient  Atom+Function  
  ----- ------------  ---------------      ----- ------------  ---------------
    27      2.685938   2 Si pz               49     -2.048872   4 C  s         
    25     -1.505262   2 Si px                3      1.377970   1 C  s         
    63      1.198118   5 C  s                 8     -1.018513   1 C  py        
    39      0.959649   3 C  px               53     -0.858283   4 C  px        
    41     -0.822327   3 C  pz               67      0.709953   5 C  px        

 Vector   49  Occ=0.000000D+00  E= 5.070193D-01
              MO Center= -3.4D-02,  9.5D-02,  3.6D-01, r^2= 7.1D+00
   Bfn.  Coefficient  Atom+Function         Bfn.  Coefficient  Atom+Function  
  ----- ------------  ---------------      ----- ------------  ---------------
    26      3.043333   2 Si py               63      2.058081   5 C  s         
     3     -1.885715   1 C  s                40     -1.280769   3 C  py        
    54     -1.267487   4 C  py                9     -0.987281   1 C  pz        
    69      0.889553   5 C  pz               25      0.603899   2 Si px        
    75      0.429312   6 H  s                90      0.412159   9 H  s         

 Vector   50  Occ=0.000000D+00  E= 5.070513D-01
              MO Center= -2.3D-01, -1.4D-02, -3.5D-01, r^2= 7.0D+00
   Bfn.  Coefficient  Atom+Function         Bfn.  Coefficient  Atom+Function  
  ----- ------------  ---------------      ----- ------------  ---------------
    25      2.646739   2 Si px               35     -2.355461   3 C  s         
    27      1.557570   2 Si pz               49      1.286976   4 C  s         
     7     -1.216744   1 C  px               55     -1.155264   4 C  pz        
    67     -1.079087   5 C  px               41      0.687495   3 C  pz        
     3      0.628082   1 C  s                68      0.511678   5 C  py        

 Vector   51  Occ=0.000000D+00  E= 5.933248D-01
              MO Center= -8.9D-02, -2.7D-01,  4.7D-01, r^2= 7.1D+00
   Bfn.  Coefficient  Atom+Function         Bfn.  Coefficient  Atom+Function  
  ----- ------------  ---------------      ----- ------------  ---------------
    95      0.584475  10 H  s               115     -0.583316  14 H  s         
    96     -0.506096  10 H  s               116      0.501371  14 H  s         
    90     -0.467932   9 H  s               125      0.466418  16 H  s         
   105      0.440235  12 H  s               120     -0.439395  15 H  s         
    91      0.401343   9 H  s               126     -0.396427  16 H  s         

 Vector   52  Occ=0.000000D+00  E= 5.933638D-01
              MO Center=  2.7D-01,  2.9D-01,  2.3D-02, r^2= 7.2D+00
   Bfn.  Coefficient  Atom+Function         Bfn.  Coefficient  Atom+Function  
  ----- ------------  ---------------      ----- ------------  ---------------
    80      0.587255   7 H  s               100     -0.589475  11 H  s         
   101      0.508425  11 H  s                81     -0.502200   7 H  s         
    85     -0.443639   8 H  s               110      0.442002  13 H  s         
    86      0.373490   8 H  s               111     -0.370895  13 H  s         
    90      0.368442   9 H  s               125     -0.367757  16 H  s         

 Vector   53  Occ=0.000000D+00  E= 5.934302D-01
              MO Center= -1.9D-01, -1.4D-02, -5.0D-01, r^2= 7.1D+00
   Bfn.  Coefficient  Atom+Function         Bfn.  Coefficient  Atom+Function  
  ----- ------------  ---------------      ----- ------------  ---------------
    75      0.600342   6 H  s               130     -0.600152  17 H  s         
    76     -0.521508   6 H  s               131      0.519285  17 H  s         
    85     -0.431129   8 H  s               110      0.428357  13 H  s         
   105     -0.411727  12 H  s               120      0.412420  15 H  s         
    86      0.368516   8 H  s               111     -0.360743  13 H  s         

 Vector   54  Occ=0.000000D+00  E= 5.947593D-01
              MO Center=  5.1D-02, -4.8D-02,  8.8D-03, r^2= 4.8D+00
   Bfn.  Coefficient  Atom+Function         Bfn.  Coefficient  Atom+Function  
  ----- ------------  ---------------      ----- ------------  ---------------
    27      2.362423   2 Si pz               49     -1.963581   4 C  s         
     3      1.736075   1 C  s                25     -1.683763   2 Si px        
    53     -1.061105   4 C  px                8     -0.868034   1 C  py        
    24     -0.637716   2 Si pz               48      0.630246   4 C  s         
     9      0.597745   1 C  pz                2     -0.557166   1 C  s         

 Vector   55  Occ=0.000000D+00  E= 5.948101D-01
              MO Center=  6.6D-03,  1.3D-02,  3.3D-02, r^2= 4.8D+00
   Bfn.  Coefficient  Atom+Function         Bfn.  Coefficient  Atom+Function  
  ----- ------------  ---------------      ----- ------------  ---------------
    26      2.747725   2 Si py               63      1.757583   5 C  s         
     3     -1.550665   1 C  s                49     -1.026102   4 C  s         
    25     -0.978355   2 Si px               68      0.843407   5 C  py        
    35      0.832846   3 C  s                23     -0.740967   2 Si py        
     9     -0.706084   1 C  pz               69      0.621016   5 C  pz        

 Vector   56  Occ=0.000000D+00  E= 5.948263D-01
              MO Center= -4.9D-02,  3.4D-02, -4.1D-02, r^2= 4.8D+00
   Bfn.  Coefficient  Atom+Function         Bfn.  Coefficient  Atom+Function  
  ----- ------------  ---------------      ----- ------------  ---------------
    25      2.188515   2 Si px               35     -2.162259   3 C  s         
    27      1.707936   2 Si pz               63      1.437221   5 C  s         
    26      0.932732   2 Si py               39      0.934980   3 C  px        
    41      0.880803   3 C  pz               68      0.817778   5 C  py        
    49      0.716967   4 C  s                34      0.694161   3 C  s         

 Vector   57  Occ=0.000000D+00  E= 6.327515D-01
              MO Center=  2.5D-03,  2.7D-06,  2.3D-03, r^2= 7.6D+00
   Bfn.  Coefficient  Atom+Function         Bfn.  Coefficient  Atom+Function  
  ----- ------------  ---------------      ----- ------------  ---------------
     3      2.479727   1 C  s                35      2.480439   3 C  s         
    49      2.480841   4 C  s                63      2.476798   5 C  s         
    18     -2.295300   2 Si s                 2     -0.960891   1 C  s         
    34     -0.961989   3 C  s                48     -0.961258   4 C  s         
    62     -0.960184   5 C  s                86     -0.496864   8 H  s         

 Vector   58  Occ=0.000000D+00  E= 6.451603D-01
              MO Center=  9.0D-04, -8.1D-04,  4.6D-04, r^2= 4.4D+00
   Bfn.  Coefficient  Atom+Function         Bfn.  Coefficient  Atom+Function  
  ----- ------------  ---------------      ----- ------------  ---------------
    28      0.925937   2 Si d -2             67      0.855947   5 C  px        
     7     -0.830766   1 C  px               54      0.831041   4 C  py        
    40     -0.802647   3 C  py              101     -0.607621  11 H  s         
   121     -0.606737  15 H  s                81     -0.603126   7 H  s         
   106     -0.603776  12 H  s                86      0.502642   8 H  s         

 Vector   59  Occ=0.000000D+00  E= 6.452571D-01
              MO Center= -2.4D-04, -7.7D-04,  8.3D-04, r^2= 4.4D+00
   Bfn.  Coefficient  Atom+Function         Bfn.  Coefficient  Atom+Function  
  ----- ------------  ---------------      ----- ------------  ---------------
    30      0.944656   2 Si d  0             55     -0.761212   4 C  pz        
    69      0.753124   5 C  pz               96     -0.641831  10 H  s         
   131     -0.642423  17 H  s                76     -0.638267   6 H  s         
   116     -0.640487  14 H  s                 9      0.609168   1 C  pz        
    41     -0.603385   3 C  pz                8      0.591416   1 C  py        

 Vector   60  Occ=0.000000D+00  E= 6.598116D-01
              MO Center= -6.7D-03,  4.2D-03,  9.0D-04, r^2= 8.0D+00
   Bfn.  Coefficient  Atom+Function         Bfn.  Coefficient  Atom+Function  
  ----- ------------  ---------------      ----- ------------  ---------------
    18      5.071624   2 Si s                17     -1.320537   2 Si s         
    68     -1.116477   5 C  py               53     -1.110774   4 C  px        
    39      0.938156   3 C  px                8      0.930760   1 C  py        
    41      0.866999   3 C  pz                9     -0.844975   1 C  pz        
    69     -0.614129   5 C  pz               55      0.594772   4 C  pz        

 Vector   61  Occ=0.000000D+00  E= 6.644220D-01
              MO Center=  2.4D-01, -4.6D-01,  2.3D-01, r^2= 6.6D+00
   Bfn.  Coefficient  Atom+Function         Bfn.  Coefficient  Atom+Function  
  ----- ------------  ---------------      ----- ------------  ---------------
   111      0.903497  13 H  s                25      0.848209   2 Si px        
   131      0.847042  17 H  s                86     -0.808187   8 H  s         
   101      0.763554  11 H  s                 3      0.709216   1 C  s         
    96     -0.711857  10 H  s                26      0.652589   2 Si py        
   121     -0.629357  15 H  s                49     -0.602095   4 C  s         

 Vector   62  Occ=0.000000D+00  E= 6.644683D-01
              MO Center=  3.3D-01,  2.5D-01,  4.3D-02, r^2= 6.8D+00
   Bfn.  Coefficient  Atom+Function         Bfn.  Coefficient  Atom+Function  
  ----- ------------  ---------------      ----- ------------  ---------------
    26      0.969514   2 Si py              106     -0.825309  12 H  s         
   121      0.802460  15 H  s                76     -0.770335   6 H  s         
    96      0.743390  10 H  s                91     -0.657656   9 H  s         
    25     -0.650433   2 Si px               63     -0.637178   5 C  s         
    86      0.632533   8 H  s                49      0.611159   4 C  s         

 Vector   63  Occ=0.000000D+00  E= 6.645868D-01
              MO Center= -5.7D-01,  2.0D-01, -2.7D-01, r^2= 6.5D+00
   Bfn.  Coefficient  Atom+Function         Bfn.  Coefficient  Atom+Function  
  ----- ------------  ---------------      ----- ------------  ---------------
    27      1.057394   2 Si pz              126      0.968915  16 H  s         
    81      0.943075   7 H  s               116      0.864410  14 H  s         
    35      0.783009   3 C  s                91     -0.701872   9 H  s         
    41      0.597939   3 C  pz              106     -0.573319  12 H  s         
     9      0.566879   1 C  pz               69      0.568153   5 C  pz        

 Vector   64  Occ=0.000000D+00  E= 6.949349D-01
              MO Center=  5.2D-01,  5.6D-02,  1.3D+00, r^2= 6.8D+00
   Bfn.  Coefficient  Atom+Function         Bfn.  Coefficient  Atom+Function  
  ----- ------------  ---------------      ----- ------------  ---------------
    35      3.540529   3 C  s                49     -2.396024   4 C  s         
    34     -1.287939   3 C  s                91     -1.287852   9 H  s         
   101     -1.285144  11 H  s                96     -1.126729  10 H  s         
   111      0.959313  13 H  s               106      0.954475  12 H  s         
    48      0.871806   4 C  s                41      0.741966   3 C  pz        

 Vector   65  Occ=0.000000D+00  E= 6.950519D-01
              MO Center=  2.0D-01,  3.9D-01, -1.3D+00, r^2= 6.9D+00
   Bfn.  Coefficient  Atom+Function         Bfn.  Coefficient  Atom+Function  
  ----- ------------  ---------------      ----- ------------  ---------------
     3      3.473206   1 C  s                63     -2.521797   5 C  s         
    81     -1.285146   7 H  s                 2     -1.263655   1 C  s         
    86     -1.253517   8 H  s                76     -1.088680   6 H  s         
   121      1.016035  15 H  s               126      0.973575  16 H  s         
    62      0.917712   5 C  s                 9     -0.718528   1 C  pz        

 Vector   66  Occ=0.000000D+00  E= 6.950943D-01
              MO Center= -7.2D-01, -4.5D-01, -4.3D-03, r^2= 8.1D+00
   Bfn.  Coefficient  Atom+Function         Bfn.  Coefficient  Atom+Function  
  ----- ------------  ---------------      ----- ------------  ---------------
    49      2.827875   4 C  s                63     -2.748680   5 C  s         
     3     -1.343452   1 C  s                35      1.252892   3 C  s         
   116     -1.182178  14 H  s               131      1.159262  17 H  s         
    48     -1.028441   4 C  s                62      0.999547   5 C  s         
   111     -0.948205  13 H  s               126      0.925336  16 H  s         

 Vector   67  Occ=0.000000D+00  E= 7.088641D-01
              MO Center= -2.2D-03, -2.7D-04,  9.8D-04, r^2= 6.6D+00
   Bfn.  Coefficient  Atom+Function         Bfn.  Coefficient  Atom+Function  
  ----- ------------  ---------------      ----- ------------  ---------------
    81      0.709660   7 H  s               101      0.706427  11 H  s         
   106      0.705847  12 H  s               121      0.704758  15 H  s         
    91     -0.685599   9 H  s               111     -0.683553  13 H  s         
   126     -0.684358  16 H  s                86     -0.677513   8 H  s         
    67     -0.528489   5 C  px                7      0.523935   1 C  px        

 Vector   68  Occ=0.000000D+00  E= 7.089879D-01
              MO Center=  9.1D-04, -3.0D-05, -2.1D-03, r^2= 6.6D+00
   Bfn.  Coefficient  Atom+Function         Bfn.  Coefficient  Atom+Function  
  ----- ------------  ---------------      ----- ------------  ---------------
    76      0.806218   6 H  s                96      0.800478  10 H  s         
   116      0.800116  14 H  s               131      0.802993  17 H  s         
    55      0.472635   4 C  pz               69     -0.471261   5 C  pz        
    91     -0.423024   9 H  s               126     -0.423855  16 H  s         
    86     -0.419255   8 H  s               111     -0.420261  13 H  s         

 Vector   69  Occ=0.000000D+00  E= 7.546940D-01
              MO Center= -4.6D-02, -3.7D-01,  5.0D-01, r^2= 6.5D+00
   Bfn.  Coefficient  Atom+Function         Bfn.  Coefficient  Atom+Function  
  ----- ------------  ---------------      ----- ------------  ---------------
    67     -1.225571   5 C  px               55      1.166651   4 C  pz        
    96     -1.036375  10 H  s               116      1.039278  14 H  s         
    91      0.951560   9 H  s               126     -0.953428  16 H  s         
[...]
    2 14.000  2.457
    3  6.000  2.000
    4  6.000  2.000
    5  6.000  2.000
    6  1.000  1.300
    7  1.000  1.300
    8  1.000  1.300
    9  1.000  1.300
   10  1.000  1.300
   11  1.000  1.300
   12  1.000  1.300
   13  1.000  1.300
   14  1.000  1.300
   15  1.000  1.300
   16  1.000  1.300
   17  1.000  1.300
 ...... end of -cosmo- initialization ......


  scftype          =     RHF 
  nclosed          =       25
  nopen            =        0
  variables        =     2725
  # of vectors     =        3
  tolerance        = 0.10D-03
  level shift      = 0.00D+00
  max iterations   =       50
  max subspace     =       30


 Integral file          = ./CONF1.aoints.0
 Record size in doubles =  65536        No. of integs per rec  =  43688
 Max. records in memory =    161        Max. records in file   =  32966
 No. of bits per label  =      8        No. of bits per value  =     64


 #quartets = 2.321D+06 #integrals = 2.954D+07 #direct =  0.0% #cached =100.0%


File balance: exchanges=    15  moved=    89  time=   0.0

 SCF residual:    2.1393023621140105E-005


Iterative solution of linear equations
  No. of variables     2725
  No. of equations        3
  Maximum subspace       30
        Iterations       50
       Convergence  1.0D-04
        Start time    111.2


   iter   nsub   residual    time
   ----  ------  --------  ---------
     1      3    2.94D-01     115.9
     2      6    6.10D-03     120.6
     3      9    1.79D-04     125.4
     4     12    7.56D-06     130.9

------------------------------------------------------------
EAF file 1: "./CONF1.aoints.0" size=11534336 bytes
------------------------------------------------------------
               write      read    awrite     aread      wait
               -----      ----    ------     -----      ----
     calls:       22         1         0        21        21
   data(b): 1.15e+07  5.24e+05  0.00e+00  1.10e+07
   time(s): 0.00e+00  0.00e+00  0.00e+00  0.00e+00  0.00e+00
rate(mb/s): 0.00e+00  0.00e+00
------------------------------------------------------------


 Parallel integral file used     682 records with       0 large values


 Wrote CPHF data to ./CONF1.shieldcphf

 Calc. par tensor-> nonrel
      Atom:    1  C 
        Diamagnetic
    241.2070      2.0030     -1.8457
      2.0030    247.7208     -6.4294
     -1.8457     -6.4294    246.4947

        Paramagnetic
    -53.5309     -0.9077      0.8345
     -0.9077    -56.4228      2.9329
      0.8345      2.9329    -55.9201

        Total Shielding Tensor
    187.6762      1.0953     -1.0112
      1.0953    191.2980     -3.4965
     -1.0112     -3.4965    190.5746

           isotropic =     189.8496
          anisotropy =       7.3729

          Principal Components and Axis System
                 1           2           3
              194.7649    187.4258    187.3582

      1         0.2058     -0.2546      0.9449
      2         0.7264      0.6868      0.0269
      3        -0.6558      0.6808      0.3263



      Atom:    2  Si
        Diamagnetic
    883.0547     -0.0037     -0.0034
     -0.0037    883.0578      0.0085
     -0.0034      0.0085    883.0507

        Paramagnetic
   -480.1578     -0.0146     -0.0269
     -0.0146   -480.0514      0.0247
     -0.0269      0.0247   -480.0159

        Total Shielding Tensor
    402.8969     -0.0183     -0.0303
     -0.0183    403.0064      0.0331
     -0.0303      0.0331    403.0348

           isotropic =     402.9794
          anisotropy =       0.1271

          Principal Components and Axis System
                 1           2           3
              403.0641    402.9846    402.8894

      1        -0.2070      0.0133      0.9783
      2         0.5357      0.8382      0.1020
      3         0.8186     -0.5452      0.1806



      Atom:    3  C 
        Diamagnetic
    247.9741     -0.5403      6.7069
     -0.5403    240.6851     -0.4933
      6.7069     -0.4933    246.7890

        Paramagnetic
    -56.5563      0.2089     -2.9976
      0.2089    -53.3030      0.2427
     -2.9976      0.2427    -56.0405

        Total Shielding Tensor
    191.4178     -0.3314      3.7093
     -0.3314    187.3822     -0.2506
      3.7093     -0.2506    190.7486

           isotropic =     189.8495
          anisotropy =       7.4716

          Principal Components and Axis System
                 1           2           3
              194.8305    187.3975    187.3205

      1         0.7372     -0.4466     -0.5070
      2        -0.0555      0.7079     -0.7042
      3         0.6733      0.5473      0.4971



      Atom:    4  C 
        Diamagnetic
    250.6827     -2.3983     -5.3981
     -2.3983    241.2424      1.2998
     -5.3981      1.2998    243.5534

        Paramagnetic
    -57.7538      1.0743      2.4462
      1.0743    -53.4914     -0.5732
      2.4462     -0.5732    -54.5542

        Total Shielding Tensor
    192.9289     -1.3240     -2.9519
     -1.3240    187.7510      0.7267
     -2.9519      0.7267    188.9992

           isotropic =     189.8930
          anisotropy =       7.4087

          Principal Components and Axis System
                 1           2           3
              194.8322    187.4395    187.4074

      1         0.8619      0.4221      0.2809
      2        -0.2086      0.8001     -0.5624
      3        -0.4622      0.4261      0.7777



      Atom:    5  C 
        Diamagnetic
    240.7200      0.9338      0.4968
      0.9338    250.9921      5.6633
      0.4968      5.6633    243.7399

        Paramagnetic
    -53.2790     -0.4036     -0.2036
     -0.4036    -57.8823     -2.5284
     -0.2036     -2.5284    -54.6275

        Total Shielding Tensor
    187.4410      0.5302      0.2931
      0.5302    193.1098      3.1349
      0.2931      3.1349    189.1124

           isotropic =     189.8877
          anisotropy =       7.4858

          Principal Components and Axis System
                 1           2           3
              194.8783    187.3947    187.3902

      1         0.0812      0.5647      0.8213
      2         0.8739     -0.4366      0.2138
      3         0.4793      0.7004     -0.5289



      Atom:    6  H 
        Diamagnetic
     23.2869      2.2957     -0.1111
      2.2957     38.6534      2.1148
     -0.1111      2.1148     26.3409

        Paramagnetic
      4.4742     -0.9509      0.1714
     -0.9509     -1.5302     -0.4552
      0.1714     -0.4552      2.8021

        Total Shielding Tensor
     27.7611      1.3448      0.0603
      1.3448     37.1232      1.6595
      0.0603      1.6595     29.1430

           isotropic =      31.3424
          anisotropy =       9.4373

          Principal Components and Axis System
                 1           2           3
               37.6340     28.8440     27.5493

      1         0.1336     -0.1565      0.9786
      2         0.9724     -0.1696     -0.1599
      3         0.1910      0.9730      0.1295



      Atom:    7  H 
        Diamagnetic
     29.0494     -1.1548      6.4448
     -1.1548     25.8891     -4.4054
      6.4448     -4.4054     33.2836

        Paramagnetic
      2.1703      0.1831     -2.2646
      0.1831      3.0549      1.9654
     -2.2646      1.9654      0.5094

        Total Shielding Tensor
     31.2198     -0.9717      4.1802
     -0.9717     28.9440     -2.4400
      4.1802     -2.4400     33.7929

           isotropic =      31.3189
          anisotropy =       9.4624

          Principal Components and Axis System
                 1           2           3
               37.6272     28.8067     27.5229

      1         0.5539      0.6821      0.4774
      2        -0.2821      0.6932     -0.6632
      3         0.7834     -0.2326     -0.5764



      Atom:    8  H 
        Diamagnetic
     33.3932      0.1476     -7.5076
      0.1476     25.3832     -1.8625
     -7.5076     -1.8625     29.5270

        Paramagnetic
      0.6784     -0.0409      2.8353
     -0.0409      3.1744      1.0757
      2.8353      1.0757      1.8940

        Total Shielding Tensor
     34.0716      0.1067     -4.6723
      0.1067     28.5576     -0.7868
     -4.6723     -0.7868     31.4209

           isotropic =      31.3500
          anisotropy =       9.4312

          Principal Components and Axis System
                 1           2           3
               37.6375     28.8516     27.5609

      1         0.7941     -0.3482      0.4982
      2         0.0617      0.8616      0.5038
      3        -0.6046     -0.3693      0.7057



      Atom:    9  H 
        Diamagnetic
     26.1529      2.4038      4.1933
      2.4038     32.2228      6.5710
      4.1933      6.5710     29.9092

        Paramagnetic
      2.9597     -0.7238     -1.9361
     -0.7238      1.0446     -2.3483
     -1.9361     -2.3483      1.7315

        Total Shielding Tensor
     29.1126      1.6800      2.2573
      1.6800     33.2674      4.2227
      2.2573      4.2227     31.6407

           isotropic =      31.3402
          anisotropy =       9.4428

          Principal Components and Axis System
                 1           2           3
               37.6354     28.8327     27.5525

      1         0.3068      0.6909     -0.6547
      2         0.7199     -0.6184     -0.3152
      3         0.6226      0.3746      0.6871



      Atom:   10  H 
        Diamagnetic
     38.4945     -2.9741     -1.7341
     -2.9741     23.5096      0.6932
     -1.7341      0.6932     26.2813

        Paramagnetic
     -1.4859      1.1241      0.2951
      1.1241      4.4215     -0.2610
      0.2951     -0.2610      2.8007

        Total Shielding Tensor
     37.0086     -1.8500     -1.4390
     -1.8500     27.9311      0.4322
     -1.4390      0.4322     29.0821

           isotropic =      31.3406
          anisotropy =       9.4382

          Principal Components and Axis System
                 1           2           3
               37.6327     28.8372     27.5518

      1         0.9662      0.1901      0.1743
      2        -0.1919      0.0786      0.9783
      3        -0.1723      0.9786     -0.1124



      Atom:   11  H 
        Diamagnetic
     25.4537      0.2281      1.8626
      0.2281     29.6769     -7.5856
      1.8626     -7.5856     33.1481

        Paramagnetic
      3.1215     -0.1846     -1.0563
     -0.1846      2.0642      2.8109
     -1.0563      2.8109      0.5469

        Total Shielding Tensor
     28.5752      0.0436      0.8063
      0.0436     31.7412     -4.7747
      0.8063     -4.7747     33.6949

           isotropic =      31.3371
          anisotropy =       9.4411

          Principal Components and Axis System
                 1           2           3
               37.6312     28.8333     27.5469

      1         0.0660      0.8748     -0.4800
      2        -0.6281      0.4102      0.6612
      3         0.7754      0.2578      0.5765



      Atom:   12  H 
        Diamagnetic
     26.5227     -2.0621     -2.6422
     -2.0621     33.6838      7.1079
     -2.6422      7.1079     28.1024

        Paramagnetic
      2.5863      0.7599      1.2617
      0.7599      0.5700     -2.6874
      1.2617     -2.6874      2.5804

        Total Shielding Tensor
     29.1090     -1.3022     -1.3805
     -1.3022     34.2538      4.4205
     -1.3805      4.4205     30.6827

           isotropic =      31.3485
          anisotropy =       9.4350

          Principal Components and Axis System
                 1           2           3
               37.6385     28.8508     27.5562

      1        -0.2125      0.9207      0.3274
      2         0.8051      0.3549     -0.4753
      3         0.5538     -0.1626      0.8166



      Atom:   13  H 
        Diamagnetic
     28.2909      2.5105     -5.6042
      2.5105     28.8457     -6.0042
     -5.6042     -6.0042     31.1232

        Paramagnetic
      2.0274     -0.6607      2.3253
     -0.6607      2.2518      2.1679
      2.3253      2.1679      1.4573

        Total Shielding Tensor
     30.3183      1.8497     -3.2789
      1.8497     31.0975     -3.8363
     -3.2789     -3.8363     32.5805

           isotropic =      31.3321
          anisotropy =       9.4548

          Principal Components and Axis System
                 1           2           3
               37.6352     28.8232     27.5378

      1        -0.4539     -0.7382      0.4991
      2        -0.5430      0.6732      0.5019
      3         0.7065      0.0432      0.7064



      Atom:   14  H 
        Diamagnetic
     37.0333     -1.9905      4.7704
     -1.9905     23.2126     -0.2753
      4.7704     -0.2753     28.0041

        Paramagnetic
     -1.0992      0.8677     -1.4204
      0.8677      4.4864     -0.0102
     -1.4204     -0.0102      2.3432

        Total Shielding Tensor
     35.9341     -1.1229      3.3501
     -1.1229     27.6990     -0.2856
      3.3501     -0.2856     30.3473

           isotropic =      31.3268
          anisotropy =       9.4593

          Principal Components and Axis System
                 1           2           3
               37.6330     28.8162     27.5312

      1         0.9009     -0.3977      0.1736
      2        -0.1139      0.1692      0.9790
      3         0.4187      0.9018     -0.1072



      Atom:   15  H 
        Diamagnetic
     31.8682     -3.8618     -5.8159
     -3.8618     28.4338      4.7609
     -5.8159      4.7609     27.9888

        Paramagnetic
      1.1660      1.2352      2.1040
      1.2352      1.9560     -2.0603
      2.1040     -2.0603      2.6119

        Total Shielding Tensor
     33.0341     -2.6265     -3.7119
     -2.6265     30.3898      2.7006
     -3.7119      2.7006     30.6007

           isotropic =      31.3415
          anisotropy =       9.4416

          Principal Components and Axis System
                 1           2           3
               37.6360     28.8387     27.5499

      1         0.7017      0.6342      0.3247
      2        -0.4578      0.7505     -0.4766
      3        -0.5460      0.1858      0.8170



      Atom:   16  H 
        Diamagnetic
     30.0028      1.6030      7.5171
      1.6030     26.6815      3.2780
      7.5171      3.2780     31.5560

        Paramagnetic
      1.9393     -0.5087     -2.8050
     -0.5087      2.4998     -1.4738
     -2.8050     -1.4738      1.2880

        Total Shielding Tensor
     31.9421      1.0943      4.7120
      1.0943     29.1813      1.8042
      4.7120      1.8042     32.8440

           isotropic =      31.3225
          anisotropy =       9.4688

          Principal Components and Axis System
                 1           2           3
               37.6350     28.8076     27.5248

      1         0.6460     -0.3927      0.6545
      2         0.2384      0.9184      0.3158
      3         0.7251      0.0480     -0.6869



      Atom:   17  H 
        Diamagnetic
     23.5473      2.8672     -1.3699
      2.8672     36.9160     -4.3873
     -1.3699     -4.3873     27.8158

        Paramagnetic
      4.4052     -1.0972      0.5042
     -1.0972     -1.0685      1.2624
      0.5042      1.2624      2.4010

        Total Shielding Tensor
     27.9524      1.7700     -0.8657
      1.7700     35.8475     -3.1249
     -0.8657     -3.1249     30.2168

           isotropic =      31.3389
          anisotropy =       9.4496

          Principal Components and Axis System
                 1           2           3
               37.6386     28.8298     27.5483

      1         0.1992     -0.0531      0.9785
      2         0.8946      0.4174     -0.1595
      3        -0.3999      0.9072      0.1307




 Task  times  cpu:       71.5s     wall:       71.5s


                                NWChem Input Module
                                -------------------


 Summary of allocated global arrays
-----------------------------------
  No active global arrays


MA_summarize_allocated_blocks: starting scan ...
MA_summarize_allocated_blocks: scan completed: 0 heap blocks, 0 stack blocks
MA usage statistics:

	allocation statistics:
					      heap	     stack
					      ----	     -----
	current number of blocks	         0	         0
	maximum number of blocks	        30	        59
	current total bytes		         0	         0
	maximum total bytes		  88583640	  44805032
	maximum total K-bytes		     88584	     44806
	maximum total M-bytes		        89	        45


                                     CITATION
                                     --------
                Please cite the following reference when publishing
                           results obtained with NWChem:

          E. Apra, E. J. Bylaska, W. A. de Jong, N. Govind, K. Kowalski,
       T. P. Straatsma, M. Valiev, H. J. J. van Dam, Y. Alexeev, J. Anchell,
       V. Anisimov, F. W. Aquino, R. Atta-Fynn, J. Autschbach, N. P. Bauman,
     J. C. Becca, D. E. Bernholdt, K. Bhaskaran-Nair, S. Bogatko, P. Borowski,
         J. Boschen, J. Brabec, A. Bruner, E. Cauet, Y. Chen, G. N. Chuev,
      C. J. Cramer, J. Daily, M. J. O. Deegan, T. H. Dunning Jr., M. Dupuis,
   K. G. Dyall, G. I. Fann, S. A. Fischer, A. Fonari, H. Fruchtl, L. Gagliardi,
      J. Garza, N. Gawande, S. Ghosh, K. Glaesemann, A. W. Gotz, J. Hammond,
       V. Helms, E. D. Hermes, K. Hirao, S. Hirata, M. Jacquelin, L. Jensen,
   B. G. Johnson, H. Jonsson, R. A. Kendall, M. Klemm, R. Kobayashi, V. Konkov,
      S. Krishnamoorthy, M. Krishnan, Z. Lin, R. D. Lins, R. J. Littlefield,
      A. J. Logsdail, K. Lopata, W. Ma, A. V. Marenich, J. Martin del Campo,
   D. Mejia-Rodriguez, J. E. Moore, J. M. Mullin, T. Nakajima, D. R. Nascimento,
    J. A. Nichols, P. J. Nichols, J. Nieplocha, A. Otero-de-la-Roza, B. Palmer,
    A. Panyala, T. Pirojsirikul, B. Peng, R. Peverati, J. Pittner, L. Pollack,
   R. M. Richard, P. Sadayappan, G. C. Schatz, W. A. Shelton, D. W. Silverstein,
   D. M. A. Smith, T. A. Soares, D. Song, M. Swart, H. L. Taylor, G. S. Thomas,
            V. Tipparaju, D. G. Truhlar, K. Tsemekhman, T. Van Voorhis,
      A. Vazquez-Mayagoitia, P. Verma, O. Villa, A. Vishnu, K. D. Vogiatzis,
        D. Wang, J. H. Weare, M. J. Williamson, T. L. Windus, K. Wolinski,
        A. T. Wong, Q. Wu, C. Yang, Q. Yu, M. Zacharias, Z. Zhang, Y. Zhao,
                                and R. J. Harrison
                        "NWChem: Past, present, and future
                         J. Chem. Phys. 152, 184102 (2020)
                               doi:10.1063/5.0004997

                                      AUTHORS
                                      -------
  E. Apra, E. J. Bylaska, N. Govind, K. Kowalski, M. Valiev, D. Mejia-Rodriguez,
       A. Kunitsa, N. P. Bauman, A. Panyala, W. A. de Jong, T. P. Straatsma,
   H. J. J. van Dam, D. Wang, T. L. Windus, J. Hammond, J. Autschbach, A. Woods,
    K. Bhaskaran-Nair, J. Brabec, K. Lopata, S. A. Fischer, S. Krishnamoorthy,
     M. Jacquelin, W. Ma, M. Klemm, O. Villa, Y. Chen, V. Anisimov, F. Aquino,
     S. Hirata, M. T. Hackler, E. Hermes, L. Jensen, J. E. Moore, J. C. Becca,
      V. Konjkov, T. Risthaus, M. Malagoli, A. Marenich, A. Otero-de-la-Roza,
        J. Mullin, P. Nichols, R. Peverati, J. Pittner, Y. Zhao, P.-D. Fan,
        A. Fonari, M. J. Williamson, R. J. Harrison, J. R. Rehr, M. Dupuis,
     D. Silverstein, D. M. A. Smith, J. Nieplocha, V. Tipparaju, M. Krishnan,
     B. E. Van Kuiken, A. Vazquez-Mayagoitia, M. Swart, Q. Wu, T. Van Voorhis,
     A. A. Auer, M. Nooijen, L. D. Crosby, E. Brown, G. Cisneros, G. I. Fann,
   H. Fruchtl, J. Garza, K. Hirao, R. A. Kendall, J. A. Nichols, K. Tsemekhman,
    K. Wolinski, J. Anchell, D. E. Bernholdt, P. Borowski, T. Clark, D. Clerc,
   H. Dachsel, M. J. O. Deegan, K. Dyall, D. Elwood, E. Glendening, M. Gutowski,
   A. C. Hess, J. Jaffe, B. G. Johnson, J. Ju, R. Kobayashi, R. Kutteh, Z. Lin,
   R. Littlefield, X. Long, B. Meng, T. Nakajima, S. Niu, L. Pollack, M. Rosing,
   K. Glaesemann, G. Sandrone, M. Stave, H. Taylor, G. Thomas, J. H. van Lenthe,
                               A. T. Wong, Z. Zhang.

 Total times  cpu:      133.9s     wall:      133.9s
